    1C
    1UUSER                                                              
    1UDATE              15.september.2021                               
    1UTIME              21:52:23                                        
    1UHOST                                                              
    1UPGM               CalculiX                                        
    1UVERSION           Version 2.18                             
    1UCOMPILETIME       Wed Sep 15 21:15:15 CEST 2021                    
    1UDIR                                                               
    1UDBN                                                               
    1UMAT    1EL                                                        
    2C                           310                                     1
 -1       165 0.00000E+00 9.75288E-01 8.89145E-01
 -1       166 5.24015E-01-6.60165E-01 4.54949E+00
 -1       167 4.38242E-01 4.48813E-01 0.00000E+00
 -1       168 5.31447E-01 0.00000E+00 0.00000E+00
 -1       169 1.00000E+00 1.46078E-01 2.65498E+00
 -1       170 1.00000E+00 3.62829E-01 8.98089E-01
 -1       171 0.00000E+00 4.58878E-01 0.00000E+00
 -1       172 0.00000E+00-2.53365E-01 2.83645E+00
 -1       173 1.00000E+00 7.22071E-01 2.96932E+00
 -1       174 1.00000E+00-2.45565E-02 8.86361E-01
 -1       175 0.00000E+00-2.78542E-02 9.43809E-01
 -1       176 1.00000E+00-2.56444E-01 2.85346E+00
 -1       177 1.00000E+00 9.77673E-01 8.45294E-01
 -1       178 0.00000E+00 7.37067E-01 2.88896E+00
 -1       179 1.00000E+00 4.39380E-01 0.00000E+00
 -1       180 4.91682E-01 1.64353E-01 9.44586E-01
 -1       181 3.52813E-01 5.16700E-01 3.83028E-01
 -1       182 5.03543E-01 1.89633E-01 2.26221E+00
 -1       183 5.04891E-01 1.96742E-01 1.65465E+00
 -1       184 7.31609E-01 4.05861E-01 4.09958E-01
 -1       185 4.93700E-01 9.35086E-01 1.43926E+00
 -1       186 5.11656E-01-3.60200E-01 3.37527E+00
 -1       187 5.46488E-01-2.63275E-02 9.17661E-01
 -1       188 1.00000E+00-6.23387E-02 1.41048E+00
 -1       189 4.98899E-01 9.94471E-01 4.22137E-01
 -1       190 1.00000E+00 4.88171E-01 1.42780E+00
 -1       191 1.00000E+00 2.20681E-01 4.14809E-01
 -1       192 5.07217E-01-1.67261E-01 2.30839E+00
 -1       193 7.25834E-01-5.88185E-03 4.35302E-01
 -1       194 1.00000E+00-5.45093E-03 4.19163E-01
 -1       195 5.06034E-01-1.25492E-01 2.00000E+00
 -1       196 0.00000E+00 3.06868E-01 1.43527E+00
 -1       197 0.00000E+00-6.63704E-02 1.45529E+00
 -1       198 1.00000E+00-1.75034E-01 3.45384E+00
 -1       199 0.00000E+00 2.28651E-01 4.34859E-01
 -1       200 0.00000E+00-6.67020E-03 4.63365E-01
 -1       201 1.00000E+00 6.81868E-01 4.03395E-01
 -1       202 5.09940E-01-6.53521E-02 1.44410E+00
 -1       203 1.00000E+00-1.34360E-03 2.09599E-01
 -1       204 8.62917E-01-1.45062E-03 2.17671E-01
 -1       205 1.00000E+00 1.10341E-01 2.07405E-01
 -1       206 1.00000E+00 2.19690E-01 0.00000E+00
 -1       207 7.65723E-01 0.00000E+00 0.00000E+00
 -1       208 0.00000E+00-1.64649E-03 2.31707E-01
 -1       209 0.00000E+00 1.14326E-01 2.17429E-01
 -1       210 0.00000E+00 2.29439E-01 0.00000E+00
 -1       211 2.65723E-01 0.00000E+00 0.00000E+00
 -1       212 2.19121E-01 2.24406E-01 0.00000E+00
 -1       213 1.00000E+00 8.40934E-01 2.01698E-01
 -1       214 7.49449E-01 9.98637E-01 2.11087E-01
 -1       215 1.00000E+00 7.19690E-01 0.00000E+00
 -1       216 1.00000E+00 9.94453E-01 4.22795E-01
 -1       217 7.19121E-01 7.24406E-01 0.00000E+00
 -1       218 5.00000E-01 1.00000E+00 0.00000E+00
 -1       219 2.49449E-01 9.98637E-01 2.11087E-01
 -1       220 1.76407E-01 7.58350E-01 1.91514E-01
 -1       221 0.00000E+00 7.29439E-01 0.00000E+00
 -1       222 2.19121E-01 7.24406E-01 0.00000E+00
 -1       223 0.00000E+00 9.93858E-01 4.44745E-01
 -1       224 5.00000E-01-2.14359E+00 8.00000E+00
 -1       225 1.00000E+00-1.62083E+00 7.01702E+00
 -1       226 5.00000E-01-1.62083E+00 7.01702E+00
 -1       227 1.00000E+00-1.64359E+00 8.00000E+00
 -1       228 5.00000E-01-1.64359E+00 8.00000E+00
 -1       229 1.00000E+00-1.15559E+00 7.00000E+00
 -1       230 1.00000E+00-6.20823E-01 7.01702E+00
 -1       231 5.00000E-01-6.20823E-01 7.01702E+00
 -1       232 5.00000E-01-1.15559E+00 7.00000E+00
 -1       233 5.00000E-01-1.14359E+00 8.00000E+00
 -1       234 0.00000E+00-1.64359E+00 8.00000E+00
 -1       235 0.00000E+00-1.62083E+00 7.01702E+00
 -1       236 0.00000E+00-6.20823E-01 7.01702E+00
 -1       237 0.00000E+00-1.15559E+00 7.00000E+00
 -1       238 7.54970E-01-9.30193E-02 1.72231E+00
 -1       239 7.53017E-01-1.25492E-01 2.00000E+00
 -1       240 7.53609E-01-1.45606E-01 2.15430E+00
 -1       241 1.00000E+00 1.81340E-01 1.71390E+00
 -1       242 1.00000E+00-9.12126E-02 1.70553E+00
 -1       243 7.52446E-01 3.56248E-02 1.82733E+00
 -1       244 7.51771E-01 3.20704E-02 2.13110E+00
 -1       245 1.00000E+00-1.85095E-01 2.42763E+00
 -1       246 1.00000E+00 1.02929E-02 2.32749E+00
 -1       247 1.00000E+00 3.74508E-01 2.00000E+00
 -1       248 0.00000E+00-9.36243E-02 1.72789E+00
 -1       249 0.00000E+00 9.06880E-02 1.71764E+00
 -1       250 2.53017E-01-1.25492E-01 2.00000E+00
 -1       251 2.53609E-01-1.45606E-01 2.15430E+00
 -1       252 2.52446E-01 3.56248E-02 1.82733E+00
 -1       253 2.51771E-01 3.20704E-02 2.13110E+00
 -1       254 0.00000E+00 3.05788E-01 2.44448E+00
 -1       255 0.00000E+00-1.83786E-01 2.41909E+00
 -1       256 0.00000E+00 3.74508E-01 2.00000E+00
 -1       257 1.00000E+00-3.41551E-01 3.72692E+00
 -1       258 7.55828E-01-4.31083E-01 3.68836E+00
 -1       259 1.00000E+00-3.71905E-01 3.42900E+00
 -1       260 7.62007E-01-5.81555E-01 4.27545E+00
 -1       261 1.00000E+00-3.37835E-01 5.00000E+00
 -1       262 1.00000E+00-8.06700E-03 4.00000E+00
 -1       263 1.00000E+00-8.04909E-01 5.01088E+00
 -1       264 7.49936E-01-2.58115E-01 3.99993E+00
 -1       265 5.00000E-01-5.08067E-01 4.00000E+00
 -1       266 2.55828E-01-4.31083E-01 3.68836E+00
 -1       267 0.00000E+00-3.70053E-01 3.42056E+00
 -1       268 2.62007E-01-5.81555E-01 4.27545E+00
 -1       269 0.00000E+00-3.37835E-01 5.00000E+00
 -1       270 0.00000E+00-8.04909E-01 5.01088E+00
 -1       271 2.49935E-01-2.58115E-01 3.99993E+00
 -1       272 0.00000E+00-8.06700E-03 4.00000E+00
 -1       273 7.62007E-01-8.96772E-01 5.28074E+00
 -1       274 5.00000E-01-1.16760E+00 6.00000E+00
 -1       275 1.00000E+00-6.67602E-01 6.00000E+00
 -1       276 2.62007E-01-8.96772E-01 5.28074E+00
 -1       277 5.00000E-01-6.67602E-01 6.00000E+00
 -1       278 0.00000E+00-6.67602E-01 6.00000E+00
 -1       279 0.00000E+00 5.90688E-01 1.71764E+00
 -1       280 2.46850E-01 9.07242E-01 1.71989E+00
 -1       281 2.52446E-01 5.35625E-01 1.82733E+00
 -1       282 2.51771E-01 5.32070E-01 2.13110E+00
 -1       283 0.00000E+00 8.12158E-01 2.44547E+00
 -1       284 0.00000E+00 9.34526E-01 1.44545E+00
 -1       285 5.00000E-01 8.74508E-01 2.00000E+00
 -1       286 2.55828E-01 6.58663E-02 3.68764E+00
 -1       287 0.00000E+00 6.24215E-01 3.44663E+00
 -1       288 5.00000E-01 6.15353E-01 3.48653E+00
 -1       289 0.00000E+00 1.19284E-01 3.41823E+00
 -1       290 2.62007E-01-8.41158E-02 4.27474E+00
 -1       291 5.00000E-01 1.95091E-01 5.01088E+00
 -1       292 0.00000E+00 1.95091E-01 5.01088E+00
 -1       293 5.00000E-01 4.91933E-01 4.00000E+00
 -1       294 2.49935E-01 2.41885E-01 3.99993E+00
 -1       295 2.62007E-01-4.13884E-01 5.27474E+00
 -1       296 5.00000E-01-1.67603E-01 6.00000E+00
 -1       297 2.49935E-01-8.78825E-02 4.99994E+00
 -1       298 1.00000E+00 6.81340E-01 1.71390E+00
 -1       299 7.46850E-01 9.07242E-01 1.71989E+00
 -1       300 7.52446E-01 5.35625E-01 1.82733E+00
 -1       301 7.51771E-01 5.32070E-01 2.13110E+00
 -1       302 5.00000E-01 8.12158E-01 2.44547E+00
 -1       303 1.00000E+00 9.36496E-01 1.42358E+00
 -1       304 1.00000E+00 8.05857E-01 2.48585E+00
 -1       305 1.00000E+00 5.10293E-01 2.32749E+00
 -1       306 1.00000E+00 1.58449E-01 3.72692E+00
 -1       307 1.00000E+00 6.15353E-01 3.48653E+00
 -1       308 7.62007E-01-8.41158E-02 4.27474E+00
 -1       309 1.00000E+00 1.95091E-01 5.01088E+00
 -1       310 7.49936E-01 2.41885E-01 3.99993E+00
 -1       311 7.62007E-01-4.13884E-01 5.27474E+00
 -1       312 7.49936E-01-8.78825E-02 4.99994E+00
 -1       313 7.49936E-01-9.15981E-02 3.72686E+00
 -1       314 5.05764E-01-1.84181E-01 3.68757E+00
 -1       315 2.49935E-01 3.64453E-01 3.44442E+00
 -1       316 7.49936E-01 3.56955E-01 3.48460E+00
 -1       317 7.49936E-01 6.89579E-02 3.32743E+00
 -1       318 5.11943E-01-3.34163E-01 4.27468E+00
 -1       319 0.00000E+00 6.01970E-01 6.62002E-01
 -1       320 0.00000E+00 6.41078E-01 1.16221E+00
 -1       321 2.49449E-01 9.86592E-01 6.55711E-01
 -1       322 2.46850E-01 9.57555E-01 1.16437E+00
 -1       323 1.76407E-01 7.45994E-01 6.36087E-01
 -1       324 2.45841E-01 5.69821E-01 9.16866E-01
 -1       325 5.00000E-01 9.76496E-01 8.67220E-01
 -1       326 0.00000E+00 4.73717E-01 9.16477E-01
 -1       327 0.00000E+00 7.17083E-01 4.44573E-01
 -1       328 7.19121E-01 5.65340E-01 2.01698E-01
 -1       329 2.19121E-01 3.38732E-01 2.17429E-01
 -1       330 4.68570E-01 7.21642E-01 2.11069E-01
 -1       331 5.84926E-01 4.27337E-01 2.04979E-01
 -1       332 3.95528E-01 4.82757E-01 1.91514E-01
 -1       333 7.19121E-01 4.44096E-01 0.00000E+00
 -1       334 2.19121E-01 4.53845E-01 0.00000E+00
 -1       335 4.84845E-01 2.24406E-01 0.00000E+00
 -1       336 2.65723E-01-1.64649E-03 2.31707E-01
 -1       337 2.65723E-01 1.14326E-01 2.17429E-01
 -1       338 6.28640E-01-1.45062E-03 2.17671E-01
 -1       339 7.65723E-01 1.10341E-01 2.07405E-01
 -1       340 6.31528E-01 2.02931E-01 2.04979E-01
 -1       341 4.42130E-01 2.58350E-01 1.91514E-01
 -1       342 7.65723E-01 2.19690E-01 0.00000E+00
 -1       343 1.00000E+00-1.44782E-02 3.05441E+00
 -1       344 7.53609E-01-1.05918E-02 2.48169E+00
 -1       345 7.55828E-01-1.07061E-01 3.01513E+00
 -1       346 7.51771E-01 1.67855E-01 2.45860E+00
 -1       347 5.00000E-01 4.41573E-01 2.77197E+00
 -1       348 1.00000E+00-5.51830E-02 2.75422E+00
 -1       349 1.00000E+00 4.34075E-01 2.81215E+00
 -1       350 5.00000E-01-5.36434E-02 2.74572E+00
 -1       351 1.00000E+00 5.22348E-01 6.50742E-01
 -1       352 8.62917E-01 1.78473E-01 6.66695E-01
 -1       353 1.00000E+00 2.91755E-01 6.56449E-01
 -1       354 1.00000E+00 4.25500E-01 1.16295E+00
 -1       355 1.00000E+00 1.50245E-01 1.15429E+00
 -1       356 7.46850E-01 6.48957E-01 1.16867E+00
 -1       357 8.65805E-01 3.84345E-01 6.54023E-01
 -1       358 7.45841E-01 2.63591E-01 9.21338E-01
 -1       359 1.00000E+00 6.70251E-01 8.71691E-01
 -1       360 1.00000E+00 1.69136E-01 8.92225E-01
 -1       361 0.00000E+00 3.43764E-01 2.17429E-01
 -1       362 1.76407E-01 4.87789E-01 1.91514E-01
 -1       363 2.53609E-01-2.08071E-01 2.57279E+00
 -1       364 2.55828E-01-3.04477E-01 3.10632E+00
 -1       365 2.51771E-01-3.18659E-02 2.54933E+00
 -1       366 0.00000E+00 2.41851E-01 2.86271E+00
 -1       367 5.00000E-01-2.54902E-01 2.84496E+00
 -1       368 1.00000E+00 2.73519E-01 3.21158E+00
 -1       369 7.51771E-01 4.55852E-01 2.61577E+00
 -1       370 5.00000E-01 7.29621E-01 2.92915E+00
 -1       371 1.00000E+00-1.32896E-02 6.52832E-01
 -1       372 8.62917E-01-1.36215E-02 6.60897E-01
 -1       373 1.00000E+00 9.80623E-02 6.50585E-01
 -1       374 1.00000E+00-4.12978E-02 1.14858E+00
 -1       375 7.73244E-01-2.54343E-02 9.02011E-01
 -1       376 7.45841E-01 6.98984E-02 9.15474E-01
 -1       377 2.54970E-01-4.46452E-02 1.19410E+00
 -1       378 0.00000E+00-1.54500E-02 7.03667E-01
 -1       379 0.00000E+00 1.00399E-01 6.89334E-01
 -1       380 0.00000E+00-4.50660E-02 1.19970E+00
 -1       381 0.00000E+00 1.39507E-01 1.18954E+00
 -1       382 2.73244E-01-2.70855E-02 9.30735E-01
 -1       383 2.45841E-01 6.82496E-02 9.44198E-01
 -1       384 1.00000E+00-2.15739E-01 3.15365E+00
 -1       385 7.53609E-01-2.09465E-01 2.58132E+00
 -1       386 7.55828E-01-3.06160E-01 3.11480E+00
 -1       387 1.00000E+00 8.29771E-01 6.24345E-01
 -1       388 1.00000E+00 7.32922E-01 1.13655E+00
 -1       389 7.49449E-01 9.87478E-01 6.33771E-01
 -1       390 7.46850E-01 9.59141E-01 1.14247E+00
 -1       391 8.65805E-01 6.91767E-01 6.27626E-01
 -1       392 7.45841E-01 5.71013E-01 8.94940E-01
 -1       393 2.55828E-01 1.88433E-01 3.13212E+00
 -1       394 2.51771E-01 4.63350E-01 2.57559E+00
 -1       395 1.00000E+00 5.60624E-01 2.01698E-01
 -1       396 1.00000E+00 3.30030E-01 2.07405E-01
 -1       397 8.65805E-01 4.22621E-01 2.04979E-01
 -1       398 5.00811E-01 4.95006E-02 1.19434E+00
 -1       399 2.45841E-01 7.88416E-02 7.03975E-01
 -1       400 2.45841E-01 1.96502E-01 6.89722E-01
 -1       401 2.45841E-01 4.89915E-02 1.19994E+00
 -1       402 2.45841E-01 2.35611E-01 1.18993E+00
 -1       403 6.08758E-01 7.92358E-02 6.89944E-01
 -1       404 7.45841E-01 3.26262E-01 1.18619E+00
 -1       405 4.95290E-01 5.79412E-01 6.83362E-01
 -1       406 7.45841E-01 5.10074E-02 1.17754E+00
 -1       407 5.19085E-01 6.90130E-02 9.31123E-01
 -1       408 4.92691E-01 5.49720E-01 1.19192E+00
 -1       409 6.11646E-01 2.85107E-01 6.77272E-01
 -1       410 4.98287E-01 1.80548E-01 1.29962E+00
 -1       411 4.22247E-01 3.40527E-01 6.63807E-01
 -1       412 1.76407E-01 3.72676E-01 4.08943E-01
 -1       413 5.39324E-01 2.55409E-01 4.09165E-01
 -1       414 4.25856E-01 7.55586E-01 4.02582E-01
 -1       415 5.42211E-01 4.61281E-01 3.96493E-01
 -1       416 5.04788E-01 3.20704E-02 2.13110E+00
 -1       417 5.05380E-01 1.11857E-02 2.28530E+00
 -1       418 5.04217E-01 1.93187E-01 1.95843E+00
 -1       419 5.07416E-01 6.56948E-02 1.54938E+00
 -1       420 2.52446E-01 6.51857E-02 1.55497E+00
 -1       421 2.52446E-01 2.51805E-01 1.54496E+00
 -1       422 5.05463E-01 3.56248E-02 1.82733E+00
 -1       423 7.52446E-01 3.42456E-01 1.54123E+00
 -1       424 7.52446E-01 6.72015E-02 1.53257E+00
 -1       425 4.99296E-01 5.65914E-01 1.54696E+00
 -1       426 8.65805E-01 5.43865E-01 4.06676E-01
 -1       427 7.28722E-01 1.99990E-01 4.22630E-01
 -1       428 8.65805E-01 3.13271E-01 4.12384E-01
 -1       429 6.15254E-01 7.00166E-01 4.16047E-01
 -1       430 2.46850E-01 6.20977E-01 1.43727E+00
 -1       431 7.46850E-01 7.11629E-01 1.43353E+00
 -1       432 7.55828E-01-2.67617E-01 3.41456E+00
 -1       433 5.28214E-01-4.36716E-02 1.18104E+00
 -1       434 2.73244E-01-1.48784E-02 6.90583E-01
 -1       435 2.73244E-01 1.01162E-01 6.76260E-01
 -1       436 6.36161E-01-1.42777E-02 6.76558E-01
 -1       437 7.73244E-01-4.24327E-02 1.16421E+00
 -1       438 7.54970E-01-6.38366E-02 1.42729E+00
 -1       439 1.00000E+00 2.12916E-01 1.41914E+00
 -1       440 7.49449E-01 8.38169E-01 4.12766E-01
 -1       441 1.00000E+00 4.51275E-01 4.09102E-01
 -1       442 1.00000E+00 1.07615E-01 4.16986E-01
 -1       443 8.62917E-01 1.07400E-01 4.25055E-01
 -1       444 5.06625E-01-1.45606E-01 2.15430E+00
 -1       445 3.62917E-01-6.26984E-03 4.49333E-01
 -1       446 3.62917E-01 1.11385E-01 4.35080E-01
 -1       447 8.62917E-01-5.66434E-03 4.27232E-01
 -1       448 5.07987E-01-9.30193E-02 1.72231E+00
 -1       449 2.53017E-01-9.36243E-02 1.72789E+00
 -1       450 2.54970E-01 1.20758E-01 1.43969E+00
 -1       451 0.00000E+00 1.20249E-01 1.44528E+00
 -1       452 2.54970E-01-6.58602E-02 1.44969E+00
 -1       453 0.00000E+00 1.10991E-01 4.49112E-01
 -1       454 1.00000E+00 4.91933E-01 4.00000E+00
 -1       455 1.00000E+00-1.67603E-01 6.00000E+00
 -1       456 4.99871E-01-8.16205E-03 3.99987E+00
 -1       457 1.00000E+00 1.00000E+00 0.00000E+00
 -1       458 0.00000E+00 4.91933E-01 4.00000E+00
 -1       459 0.00000E+00-1.67603E-01 6.00000E+00
 -1       460 0.00000E+00-1.16760E+00 6.00000E+00
 -1       461 0.00000E+00-1.14359E+00 8.00000E+00
 -1       462 1.00000E+00-1.14359E+00 8.00000E+00
 -1       463 1.00000E+00-1.16760E+00 6.00000E+00
 -1       464 0.00000E+00-2.14359E+00 8.00000E+00
 -1       465 0.00000E+00-1.25492E-01 2.00000E+00
 -1       466 0.00000E+00 1.00000E+00 0.00000E+00
 -1       467 0.00000E+00-5.08067E-01 4.00000E+00
 -1       468 1.00000E+00-5.08067E-01 4.00000E+00
 -1       469 1.00000E+00-2.14359E+00 8.00000E+00
 -1       470 1.00000E+00-1.25492E-01 2.00000E+00
 -1       471 0.00000E+00 8.74508E-01 2.00000E+00
 -1       472 0.00000E+00 0.00000E+00 0.00000E+00
 -1       473 1.00000E+00 8.74508E-01 2.00000E+00
 -1       474 1.00000E+00 0.00000E+00 0.00000E+00
 -3
    3C                           142                                     1
 -1         1    6    0    1
 -2       181       168       167       184       341       335       332       415       340       331
 -1         2    6    0    1
 -2       187       180       174       193       407       376       375       436       403       372
 -1         3    6    0    1
 -2       186       176       169       198       386       348       345       432       384       343
 -1         4    6    0    1
 -2       454       455       456       166       309       312       310       308       311       318
 -1         5    6    0    1
 -2       168       179       184       191       342       397       340       339       396       428
 -1         6    6    0    1
 -2       189       167       457       201       330       217       214       440       328       213
 -1         7    6    0    1
 -2       173       456       458       178       316       294       288       370       315       287
 -1         8    6    0    1
 -2       458       459       456       455       292       297       294       291       296       312
 -1         9    6    0    1
 -2       460       461       462       459       237       233       232       278       236       231
 -1        10    6    0    1
 -2       462       455       463       460       230       275       229       232       277       274
 -1        11    6    0    1
 -2       464       462       460       461       228       232       235       234       233       237
 -1        12    6    0    1
 -2       454       456       173       198       310       316       307       306       313       368
 -1        13    6    0    1
 -2       196       183       465       197       421       252       249       451       420       248
 -1        14    6    0    1
 -2       458       454       456       173       293       310       294       288       307       316
 -1        15    6    0    1
 -2       171       167       466       181       334       222       221       362       332       220
 -1        16    6    0    1
 -2       186       169       456       198       345       317       314       432       343       313
 -1        17    6    0    1
 -2       460       459       455       166       278       296       277       276       295       311
 -1        18    6    0    1
 -2       455       459       460       462       296       278       277       230       231       232
 -1        19    6    0    1
 -2       456       467       468       166       271       265       264       318       268       260
 -1        20    6    0    1
 -2       460       462       469       463       232       227       226       274       229       225
 -1        21    6    0    1
 -2       469       462       460       464       227       232       226       224       228       235
 -1        22    6    0    1
 -2       463       460       455       166       274       277       275       273       276       311
 -1        23    6    0    1
 -2       169       172       182       192       350       365       346       344       363       417
 -1        24    6    0    1
 -2       468       467       456       186       265       271       264       258       266       314
 -1        25    6    0    1
 -2       456       459       458       166       297       292       294       318       295       290
 -1        26    6    0    1
 -2       456       455       459       166       312       296       297       318       311       295
 -1        27    6    0    1
 -2       459       460       467       166       278       270       269       295       276       268
 -1        28    6    0    1
 -2       456       458       467       166       294       272       271       318       290       268
 -1        29    6    0    1
 -2       178       173       169       182       370       349       347       394       369       346
 -1        30    6    0    1
 -2       458       455       456       454       291       312       294       293       309       310
 -1        31    6    0    1
 -2       176       172       169       192       367       350       348       385       363       344
 -1        32    6    0    1
 -2       180       181       184       193       411       415       409       403       413       427
 -1        33    6    0    1
 -2       466       165       171       181       223       327       221       220       323       362
 -1        34    6    0    1
 -2       468       454       456       166       262       310       264       260       308       318
 -1        35    6    0    1
 -2       455       454       468       166       309       262       261       311       308       260
 -1        36    6    0    1
 -2       468       463       455       166       263       275       261       260       273       311
 -1        68    6    0    1
 -2       467       458       459       166       272       292       269       268       290       295
 -1        69    6    0    1
 -2       191       184       170       201       428       357       353       441       426       351
 -1        70    6    0    1
 -2       470       169       182       192       246       346       244       240       344       417
 -1        71    6    0    1
 -2       184       179       167       201       397       333       331       426       395       328
 -1        72    6    0    1
 -2       180       177       170       184       392       359       358       409       391       357
 -1        73    6    0    1
 -2       178       169       456       186       347       317       315       393       345       314
 -1        74    6    0    1
 -2       173       169       456       178       349       317       316       370       347       315
 -1        75    6    0    1
 -2       456       454       468       198       310       262       264       313       306       257
 -1        76    6    0    1
 -2       465       471       182       183       256       282       253       252       281       418
 -1        77    6    0    1
 -2       472       168       199       200       211       337       209       208       336       453
 -1        78    6    0    1
 -2       470       182       183       195       244       418       243       239       416       422
 -1        79    6    0    1
 -2       466       165       181       189       223       323       220       219       321       414
 -1        80    6    0    1
 -2       180       181       193       199       411       413       403       400       412       446
 -1        81    6    0    1
 -2       169       473       470       182       305       247       246       346       301       244
 -1        82    6    0    1
 -2       172       458       467       186       289       272       267       364       286       266
 -1        83    6    0    1
 -2       178       172       465       182       366       255       254       394       365       253
 -1        84    6    0    1
 -2       182       172       465       192       365       255       253       417       363       251
 -1        85    6    0    1
 -2       185       183       471       196       425       281       280       430       421       279
 -1        86    6    0    1
 -2       170       177       185       190       359       390       356       354       388       431
 -1        87    6    0    1
 -2       167       168       181       199       335       341       332       329       337       412
 -1        88    6    0    1
 -2       471       165       185       196       284       322       280       279       320       430
 -1        89    6    0    1
 -2       467       458       456       186       272       294       271       266       286       314
 -1        90    6    0    1
 -2       456       169       173       198       317       349       316       313       343       368
 -1        91    6    0    1
 -2       180       174       170       188       376       360       358       406       374       355
 -1        92    6    0    1
 -2       188       183       180       202       424       410       406       438       419       398
 -1        93    6    0    1
 -2       180       177       165       185       392       325       324       408       390       322
 -1        94    6    0    1
 -2       181       171       167       199       362       334       332       412       361       329
 -1        95    6    0    1
 -2       193       187       180       199       436       407       403       446       435       400
 -1        96    6    0    1
 -2       470       183       188       202       243       424       242       238       419       438
 -1        97    6    0    1
 -2       179       168       474       191       342       207       206       396       339       205
 -1        98    6    0    1
 -2       184       181       168       193       415       341       340       427       413       338
 -1        99    6    0    1
 -2       457       167       179       201       217       333       215       213       328       395
 -1       100    6    0    1
 -2       168       167       472       199       335       212       211       337       329       209
 -1       101    6    0    1
 -2       471       473       182       183       285       301       282       281       300       418
 -1       102    6    0    1
 -2       183       182       465       195       418       253       252       422       416       250
 -1       103    6    0    1
 -2       465       182       192       195       253       417       251       250       416       444
 -1       104    6    0    1
 -2       193       191       174       194       443       373       372       447       442       371
 -1       105    6    0    1
 -2       167       181       184       189       332       415       331       330       414       429
 -1       106    6    0    1
 -2       165       177       180       189       325       392       324       321       389       405
 -1       107    6    0    1
 -2       167       168       179       184       335       342       333       331       340       397
 -1       108    6    0    1
 -2       184       180       177       189       409       392       391       429       405       389
 -1       109    6    0    1
 -2       170       184       191       193       357       428       353       352       427       443
 -1       110    6    0    1
 -2       457       466       167       189       218       222       217       214       219       330
 -1       111    6    0    1
 -2       471       473       178       182       285       302       283       282       301       394
 -1       112    6    0    1
 -2       176       169       470       192       348       246       245       385       344       240
 -1       113    6    0    1
 -2       473       169       173       182       305       349       304       301       346       369
 -1       114    6    0    1
 -2       465       471       178       182       256       283       254       253       282       394
 -1       115    6    0    1
 -2       169       172       178       182       350       366       347       346       365       394
 -1       116    6    0    1
 -2       473       173       178       182       304       370       302       301       369       394
 -1       117    6    0    1
 -2       182       473       470       183       301       247       244       418       300       243
 -1       118    6    0    1
 -2       187       180       175       202       407       383       382       433       398       377
 -1       119    6    0    1
 -2       185       180       170       190       408       358       356       431       404       354
 -1       120    6    0    1
 -2       170       177       180       185       359       392       358       356       390       408
 -1       121    6    0    1
 -2       471       473       183       185       285       300       281       280       299       425
 -1       122    6    0    1
 -2       465       183       195       197       252       422       250       248       420       449
 -1       123    6    0    1
 -2       473       183       185       190       300       425       299       298       423       431
 -1       124    6    0    1
 -2       165       171       181       199       327       362       323       319       361       412
 -1       125    6    0    1
 -2       180       175       165       199       383       326       324       400       379       319
 -1       126    6    0    1
 -2       181       167       466       189       332       222       220       414       330       219
 -1       127    6    0    1
 -2       165       180       181       189       324       411       323       321       405       414
 -1       128    6    0    1
 -2       188       183       470       190       424       243       242       439       423       241
 -1       129    6    0    1
 -2       175       180       197       202       383       401       380       377       398       452
 -1       130    6    0    1
 -2       183       473       470       190       300       247       243       423       298       241
 -1       131    6    0    1
 -2       169       172       176       186       350       367       348       345       364       386
 -1       132    6    0    1
 -2       178       172       169       186       366       350       347       393       364       345
 -1       133    6    0    1
 -2       458       172       178       186       289       366       287       286       364       393
 -1       134    6    0    1