    1C
    1UModel: beam     Date: 10-Mar-1998                                 
    1UUSER                                                              
    1UDATE              29.july.2023                                    
    1UTIME              11:08:29                                        
    1UHOST                                                              
    1UPGM               CalculiX                                        
    1UVERSION           Version 2.21                             
    1UCOMPILETIME       Fri Jul 28 17:39:16 CEST 2023                    
    1UDIR                                                               
    1UDBN                                                               
    1UMAT    1HY                                                        
    2C                           261                                     1
 -1         1 0.00000E+00 0.00000E+00 0.00000E+00
 -1         2 1.00000E+00 0.00000E+00 0.00000E+00
 -1         3 1.00000E+00 1.00000E+00 0.00000E+00
 -1         4 0.00000E+00 1.00000E+00 0.00000E+00
 -1         5 0.00000E+00 0.00000E+00 8.00000E+00
 -1         6 1.00000E+00 0.00000E+00 8.00000E+00
 -1         7 1.00000E+00 1.00000E+00 8.00000E+00
 -1         8 0.00000E+00 1.00000E+00 8.00000E+00
 -1         9 2.50000E-01 0.00000E+00 0.00000E+00
 -1        10 5.00000E-01 0.00000E+00 0.00000E+00
 -1        11 7.50000E-01 0.00000E+00 0.00000E+00
 -1        12 1.00000E+00 2.50000E-01 0.00000E+00
 -1        13 1.00000E+00 5.00000E-01 0.00000E+00
 -1        14 1.00000E+00 7.50000E-01 0.00000E+00
 -1        15 7.50000E-01 1.00000E+00 0.00000E+00
 -1        16 5.00000E-01 1.00000E+00 0.00000E+00
 -1        17 2.50000E-01 1.00000E+00 0.00000E+00
 -1        18 0.00000E+00 7.50000E-01 0.00000E+00
 -1        19 0.00000E+00 5.00000E-01 0.00000E+00
 -1        20 0.00000E+00 2.50000E-01 0.00000E+00
 -1        21 2.50000E-01 0.00000E+00 8.00000E+00
 -1        22 5.00000E-01 0.00000E+00 8.00000E+00
 -1        23 7.50000E-01 0.00000E+00 8.00000E+00
 -1        24 1.00000E+00 2.50000E-01 8.00000E+00
 -1        25 1.00000E+00 5.00000E-01 8.00000E+00
 -1        26 1.00000E+00 7.50000E-01 8.00000E+00
 -1        27 7.50000E-01 1.00000E+00 8.00000E+00
 -1        28 5.00000E-01 1.00000E+00 8.00000E+00
 -1        29 2.50000E-01 1.00000E+00 8.00000E+00
 -1        30 0.00000E+00 7.50000E-01 8.00000E+00
 -1        31 0.00000E+00 5.00000E-01 8.00000E+00
 -1        32 0.00000E+00 2.50000E-01 8.00000E+00
 -1        33 1.00000E+00 0.00000E+00 5.00000E-01
 -1        34 1.00000E+00 0.00000E+00 1.00000E+00
 -1        35 1.00000E+00 0.00000E+00 1.50000E+00
 -1        36 1.00000E+00 0.00000E+00 2.00000E+00
 -1        37 1.00000E+00 0.00000E+00 2.50000E+00
 -1        38 1.00000E+00 0.00000E+00 3.00000E+00
 -1        39 1.00000E+00 0.00000E+00 3.50000E+00
 -1        40 1.00000E+00 0.00000E+00 4.00000E+00
 -1        41 1.00000E+00 0.00000E+00 4.50000E+00
 -1        42 1.00000E+00 0.00000E+00 5.00000E+00
 -1        43 1.00000E+00 0.00000E+00 5.50000E+00
 -1        44 1.00000E+00 0.00000E+00 6.00000E+00
 -1        45 1.00000E+00 0.00000E+00 6.50000E+00
 -1        46 1.00000E+00 0.00000E+00 7.00000E+00
 -1        47 1.00000E+00 0.00000E+00 7.50000E+00
 -1        48 0.00000E+00 0.00000E+00 7.50000E+00
 -1        49 0.00000E+00 0.00000E+00 7.00000E+00
 -1        50 0.00000E+00 0.00000E+00 6.50000E+00
 -1        51 0.00000E+00 0.00000E+00 6.00000E+00
 -1        52 0.00000E+00 0.00000E+00 5.50000E+00
 -1        53 0.00000E+00 0.00000E+00 5.00000E+00
 -1        54 0.00000E+00 0.00000E+00 4.50000E+00
 -1        55 0.00000E+00 0.00000E+00 4.00000E+00
 -1        56 0.00000E+00 0.00000E+00 3.50000E+00
 -1        57 0.00000E+00 0.00000E+00 3.00000E+00
 -1        58 0.00000E+00 0.00000E+00 2.50000E+00
 -1        59 0.00000E+00 0.00000E+00 2.00000E+00
 -1        60 0.00000E+00 0.00000E+00 1.50000E+00
 -1        61 0.00000E+00 0.00000E+00 1.00000E+00
 -1        62 0.00000E+00 0.00000E+00 5.00000E-01
 -1        63 1.00000E+00 1.00000E+00 5.00000E-01
 -1        64 1.00000E+00 1.00000E+00 1.00000E+00
 -1        65 1.00000E+00 1.00000E+00 1.50000E+00
 -1        66 1.00000E+00 1.00000E+00 2.00000E+00
 -1        67 1.00000E+00 1.00000E+00 2.50000E+00
 -1        68 1.00000E+00 1.00000E+00 3.00000E+00
 -1        69 1.00000E+00 1.00000E+00 3.50000E+00
 -1        70 1.00000E+00 1.00000E+00 4.00000E+00
 -1        71 1.00000E+00 1.00000E+00 4.50000E+00
 -1        72 1.00000E+00 1.00000E+00 5.00000E+00
 -1        73 1.00000E+00 1.00000E+00 5.50000E+00
 -1        74 1.00000E+00 1.00000E+00 6.00000E+00
 -1        75 1.00000E+00 1.00000E+00 6.50000E+00
 -1        76 1.00000E+00 1.00000E+00 7.00000E+00
 -1        77 1.00000E+00 1.00000E+00 7.50000E+00
 -1        78 0.00000E+00 1.00000E+00 5.00000E-01
 -1        79 0.00000E+00 1.00000E+00 1.00000E+00
 -1        80 0.00000E+00 1.00000E+00 1.50000E+00
 -1        81 0.00000E+00 1.00000E+00 2.00000E+00
 -1        82 0.00000E+00 1.00000E+00 2.50000E+00
 -1        83 0.00000E+00 1.00000E+00 3.00000E+00
 -1        84 0.00000E+00 1.00000E+00 3.50000E+00
 -1        85 0.00000E+00 1.00000E+00 4.00000E+00
 -1        86 0.00000E+00 1.00000E+00 4.50000E+00
 -1        87 0.00000E+00 1.00000E+00 5.00000E+00
 -1        88 0.00000E+00 1.00000E+00 5.50000E+00
 -1        89 0.00000E+00 1.00000E+00 6.00000E+00
 -1        90 0.00000E+00 1.00000E+00 6.50000E+00
 -1        91 0.00000E+00 1.00000E+00 7.00000E+00
 -1        92 0.00000E+00 1.00000E+00 7.50000E+00
 -1        93 5.00000E-01 2.50000E-01 0.00000E+00
 -1        94 2.50000E-01 5.00000E-01 0.00000E+00
 -1        95 5.00000E-01 5.00000E-01 0.00000E+00
 -1        96 7.50000E-01 5.00000E-01 0.00000E+00
 -1        97 5.00000E-01 7.50000E-01 0.00000E+00
 -1        98 5.00000E-01 2.50000E-01 8.00000E+00
 -1        99 2.50000E-01 5.00000E-01 8.00000E+00
 -1       100 5.00000E-01 5.00000E-01 8.00000E+00
 -1       101 7.50000E-01 5.00000E-01 8.00000E+00
 -1       102 5.00000E-01 7.50000E-01 8.00000E+00
 -1       103 5.00000E-01 0.00000E+00 5.00000E-01
 -1       104 2.50000E-01 0.00000E+00 1.00000E+00
 -1       105 5.00000E-01 0.00000E+00 1.00000E+00
 -1       106 7.50000E-01 0.00000E+00 1.00000E+00
 -1       107 5.00000E-01 0.00000E+00 1.50000E+00
 -1       108 2.50000E-01 0.00000E+00 2.00000E+00
 -1       109 5.00000E-01 0.00000E+00 2.00000E+00
 -1       110 7.50000E-01 0.00000E+00 2.00000E+00
 -1       111 5.00000E-01 0.00000E+00 2.50000E+00
 -1       112 2.50000E-01 0.00000E+00 3.00000E+00
 -1       113 5.00000E-01 0.00000E+00 3.00000E+00
 -1       114 7.50000E-01 0.00000E+00 3.00000E+00
 -1       115 5.00000E-01 0.00000E+00 3.50000E+00
 -1       116 2.50000E-01 0.00000E+00 4.00000E+00
 -1       117 5.00000E-01 0.00000E+00 4.00000E+00
 -1       118 7.50000E-01 0.00000E+00 4.00000E+00
 -1       119 5.00000E-01 0.00000E+00 4.50000E+00
 -1       120 2.50000E-01 0.00000E+00 5.00000E+00
 -1       121 5.00000E-01 0.00000E+00 5.00000E+00
 -1       122 7.50000E-01 0.00000E+00 5.00000E+00
 -1       123 5.00000E-01 0.00000E+00 5.50000E+00
 -1       124 2.50000E-01 0.00000E+00 6.00000E+00
 -1       125 5.00000E-01 0.00000E+00 6.00000E+00
 -1       126 7.50000E-01 0.00000E+00 6.00000E+00
 -1       127 5.00000E-01 0.00000E+00 6.50000E+00
 -1       128 2.50000E-01 0.00000E+00 7.00000E+00
 -1       129 5.00000E-01 0.00000E+00 7.00000E+00
 -1       130 7.50000E-01 0.00000E+00 7.00000E+00
 -1       131 5.00000E-01 0.00000E+00 7.50000E+00
 -1       132 1.00000E+00 5.00000E-01 5.00000E-01
 -1       133 1.00000E+00 2.50000E-01 1.00000E+00
 -1       134 1.00000E+00 5.00000E-01 1.00000E+00
 -1       135 1.00000E+00 7.50000E-01 1.00000E+00
 -1       136 1.00000E+00 5.00000E-01 1.50000E+00
 -1       137 1.00000E+00 2.50000E-01 2.00000E+00
 -1       138 1.00000E+00 5.00000E-01 2.00000E+00
 -1       139 1.00000E+00 7.50000E-01 2.00000E+00
 -1       140 1.00000E+00 5.00000E-01 2.50000E+00
 -1       141 1.00000E+00 2.50000E-01 3.00000E+00
 -1       142 1.00000E+00 5.00000E-01 3.00000E+00
 -1       143 1.00000E+00 7.50000E-01 3.00000E+00
 -1       144 1.00000E+00 5.00000E-01 3.50000E+00
 -1       145 1.00000E+00 2.50000E-01 4.00000E+00
 -1       146 1.00000E+00 5.00000E-01 4.00000E+00
 -1       147 1.00000E+00 7.50000E-01 4.00000E+00
 -1       148 1.00000E+00 5.00000E-01 4.50000E+00
 -1       149 1.00000E+00 2.50000E-01 5.00000E+00
 -1       150 1.00000E+00 5.00000E-01 5.00000E+00
 -1       151 1.00000E+00 7.50000E-01 5.00000E+00
 -1       152 1.00000E+00 5.00000E-01 5.50000E+00
 -1       153 1.00000E+00 2.50000E-01 6.00000E+00
 -1       154 1.00000E+00 5.00000E-01 6.00000E+00
 -1       155 1.00000E+00 7.50000E-01 6.00000E+00
 -1       156 1.00000E+00 5.00000E-01 6.50000E+00
 -1       157 1.00000E+00 2.50000E-01 7.00000E+00
 -1       158 1.00000E+00 5.00000E-01 7.00000E+00
 -1       159 1.00000E+00 7.50000E-01 7.00000E+00
 -1       160 1.00000E+00 5.00000E-01 7.50000E+00
 -1       161 5.00000E-01 1.00000E+00 5.00000E-01
 -1       162 7.50000E-01 1.00000E+00 1.00000E+00
 -1       163 5.00000E-01 1.00000E+00 1.00000E+00
 -1       164 2.50000E-01 1.00000E+00 1.00000E+00
 -1       165 5.00000E-01 1.00000E+00 1.50000E+00
 -1       166 7.50000E-01 1.00000E+00 2.00000E+00
 -1       167 5.00000E-01 1.00000E+00 2.00000E+00
 -1       168 2.50000E-01 1.00000E+00 2.00000E+00
 -1       169 5.00000E-01 1.00000E+00 2.50000E+00
 -1       170 7.50000E-01 1.00000E+00 3.00000E+00
 -1       171 5.00000E-01 1.00000E+00 3.00000E+00
 -1       172 2.50000E-01 1.00000E+00 3.00000E+00
 -1       173 5.00000E-01 1.00000E+00 3.50000E+00
 -1       174 7.50000E-01 1.00000E+00 4.00000E+00
 -1       175 5.00000E-01 1.00000E+00 4.00000E+00
 -1       176 2.50000E-01 1.00000E+00 4.00000E+00
 -1       177 5.00000E-01 1.00000E+00 4.50000E+00
 -1       178 7.50000E-01 1.00000E+00 5.00000E+00
 -1       179 5.00000E-01 1.00000E+00 5.00000E+00
 -1       180 2.50000E-01 1.00000E+00 5.00000E+00
 -1       181 5.00000E-01 1.00000E+00 5.50000E+00
 -1       182 7.50000E-01 1.00000E+00 6.00000E+00
 -1       183 5.00000E-01 1.00000E+00 6.00000E+00
 -1       184 2.50000E-01 1.00000E+00 6.00000E+00
 -1       185 5.00000E-01 1.00000E+00 6.50000E+00
 -1       186 7.50000E-01 1.00000E+00 7.00000E+00
 -1       187 5.00000E-01 1.00000E+00 7.00000E+00
 -1       188 2.50000E-01 1.00000E+00 7.00000E+00
 -1       189 5.00000E-01 1.00000E+00 7.50000E+00
 -1       190 0.00000E+00 5.00000E-01 5.00000E-01
 -1       191 0.00000E+00 7.50000E-01 1.00000E+00
 -1       192 0.00000E+00 5.00000E-01 1.00000E+00
 -1       193 0.00000E+00 2.50000E-01 1.00000E+00
 -1       194 0.00000E+00 5.00000E-01 1.50000E+00
 -1       195 0.00000E+00 7.50000E-01 2.00000E+00
 -1       196 0.00000E+00 5.00000E-01 2.00000E+00
 -1       197 0.00000E+00 2.50000E-01 2.00000E+00
 -1       198 0.00000E+00 5.00000E-01 2.50000E+00
 -1       199 0.00000E+00 7.50000E-01 3.00000E+00
 -1       200 0.00000E+00 5.00000E-01 3.00000E+00
 -1       201 0.00000E+00 2.50000E-01 3.00000E+00
 -1       202 0.00000E+00 5.00000E-01 3.50000E+00
 -1       203 0.00000E+00 7.50000E-01 4.00000E+00
 -1       204 0.00000E+00 5.00000E-01 4.00000E+00
 -1       205 0.00000E+00 2.50000E-01 4.00000E+00
 -1       206 0.00000E+00 5.00000E-01 4.50000E+00
 -1       207 0.00000E+00 7.50000E-01 5.00000E+00
 -1       208 0.00000E+00 5.00000E-01 5.00000E+00
 -1       209 0.00000E+00 2.50000E-01 5.00000E+00
 -1       210 0.00000E+00 5.00000E-01 5.50000E+00
 -1       211 0.00000E+00 7.50000E-01 6.00000E+00
 -1       212 0.00000E+00 5.00000E-01 6.00000E+00
 -1       213 0.00000E+00 2.50000E-01 6.00000E+00
 -1       214 0.00000E+00 5.00000E-01 6.50000E+00
 -1       215 0.00000E+00 7.50000E-01 7.00000E+00
 -1       216 0.00000E+00 5.00000E-01 7.00000E+00
 -1       217 0.00000E+00 2.50000E-01 7.00000E+00
 -1       218 0.00000E+00 5.00000E-01 7.50000E+00
 -1       219 5.00000E-01 5.00000E-01 5.00000E-01
 -1       220 5.00000E-01 2.50000E-01 1.00000E+00
 -1       221 2.50000E-01 5.00000E-01 1.00000E+00
 -1       222 5.00000E-01 5.00000E-01 1.00000E+00
 -1       223 7.50000E-01 5.00000E-01 1.00000E+00
 -1       224 5.00000E-01 7.50000E-01 1.00000E+00
 -1       225 5.00000E-01 5.00000E-01 1.50000E+00
 -1       226 5.00000E-01 2.50000E-01 2.00000E+00
 -1       227 2.50000E-01 5.00000E-01 2.00000E+00
 -1       228 5.00000E-01 5.00000E-01 2.00000E+00
 -1       229 7.50000E-01 5.00000E-01 2.00000E+00
 -1       230 5.00000E-01 7.50000E-01 2.00000E+00
 -1       231 5.00000E-01 5.00000E-01 2.50000E+00
 -1       232 5.00000E-01 2.50000E-01 3.00000E+00
 -1       233 2.50000E-01 5.00000E-01 3.00000E+00
 -1       234 5.00000E-01 5.00000E-01 3.00000E+00
 -1       235 7.50000E-01 5.00000E-01 3.00000E+00
 -1       236 5.00000E-01 7.50000E-01 3.00000E+00
 -1       237 5.00000E-01 5.00000E-01 3.50000E+00
 -1       238 5.00000E-01 2.50000E-01 4.00000E+00
 -1       239 2.50000E-01 5.00000E-01 4.00000E+00
 -1       240 5.00000E-01 5.00000E-01 4.00000E+00
 -1       241 7.50000E-01 5.00000E-01 4.00000E+00
 -1       242 5.00000E-01 7.50000E-01 4.00000E+00
 -1       243 5.00000E-01 5.00000E-01 4.50000E+00
 -1       244 5.00000E-01 2.50000E-01 5.00000E+00
 -1       245 2.50000E-01 5.00000E-01 5.00000E+00
 -1       246 5.00000E-01 5.00000E-01 5.00000E+00
 -1       247 7.50000E-01 5.00000E-01 5.00000E+00
 -1       248 5.00000E-01 7.50000E-01 5.00000E+00
 -1       249 5.00000E-01 5.00000E-01 5.50000E+00
 -1       250 5.00000E-01 2.50000E-01 6.00000E+00
 -1       251 2.50000E-01 5.00000E-01 6.00000E+00
 -1       252 5.00000E-01 5.00000E-01 6.00000E+00
 -1       253 7.50000E-01 5.00000E-01 6.00000E+00
 -1       254 5.00000E-01 7.50000E-01 6.00000E+00
 -1       255 5.00000E-01 5.00000E-01 6.50000E+00
 -1       256 5.00000E-01 2.50000E-01 7.00000E+00
 -1       257 2.50000E-01 5.00000E-01 7.00000E+00
 -1       258 5.00000E-01 5.00000E-01 7.00000E+00
 -1       259 7.50000E-01 5.00000E-01 7.00000E+00
 -1       260 5.00000E-01 7.50000E-01 7.00000E+00
 -1       261 5.00000E-01 5.00000E-01 7.50000E+00
 -3
    3C                            32                                     1
 -1         1    4    0    1
 -2         1        10        95        19        61       105       222       192         9        93
 -2        94        20        62       103       219       190       104       220       221       193
 -1         2    4    0    1
 -2        10         2        13        95       105        34       134       222        11        12
 -2        96        93       103        33       132       219       106       133       223       220
 -1         3    4    0    1
 -2        19        95        16         4       192       222       163        79        94        97
 -2        17        18       190       219       161        78       221       224       164       191
 -1         4    4    0    1
 -2        95        13         3        16       222       134        64       163        96        14
 -2        15        97       219       132        63       161       223       135       162       224
 -1         5    4    0    1
 -2        61       105       222       192        59       109       228       196       104       220
 -2       221       193        60       107       225       194       108       226       227       197
 -1         6    4    0    1
 -2       105        34       134       222       109        36       138       228       106       133
 -2       223       220       107        35       136       225       110       137       229       226
 -1         7    4    0    1
 -2       192       222       163        79       196       228       167        81       221       224
 -2       164       191       194       225       165        80       227       230       168       195
 -1         8    4    0    1
 -2       222       134        64       163       228       138        66       167       223       135
 -2       162       224       225       136        65       165       229       139       166       230
 -1         9    4    0    1
 -2        59       109       228       196        57       113       234       200       108       226
 -2       227       197        58       111       231       198       112       232       233       201
 -1        10    4    0    1
 -2       109        36       138       228       113        38       142       234       110       137
 -2       229       226       111        37       140       231       114       141       235       232
 -1        11    4    0    1
 -2       196       228       167        81       200       234       171        83       227       230
 -2       168       195       198       231       169        82       233       236       172       199
 -1        12    4    0    1
 -2       228       138        66       167       234       142        68       171       229       139
 -2       166       230       231       140        67       169       235       143       170       236
 -1        13    4    0    1
 -2        57       113       234       200        55       117       240       204       112       232
 -2       233       201        56       115       237       202       116       238       239       205
 -1        14    4    0    1
 -2       113        38       142       234       117        40       146       240       114       141
 -2       235       232       115        39       144       237       118       145       241       238
 -1        15    4    0    1
 -2       200       234       171        83       204       240       175        85       233       236
 -2       172       199       202       237       173        84       239       242       176       203
 -1        16    4    0    1
 -2       234       142        68       171       240       146        70       175       235       143
 -2       170       236       237       144        69       173       241       147       174       242
 -1        17    4    0    1
 -2        55       117       240       204        53       121       246       208       116       238
 -2       239       205        54       119       243       206       120       244       245       209
 -1        18    4    0    1
 -2       117        40       146       240       121        42       150       246       118       145
 -2       241       238       119        41       148       243       122       149       247       244
 -1        19    4    0    1
 -2       204       240       175        85       208       246       179        87       239       242
 -2       176       203       206       243       177        86       245       248       180       207
 -1        20    4    0    1
 -2       240       146        70       175       246       150        72       179       241       147
 -2       174       242       243       148        71       177       247       151       178       248
 -1        21    4    0    1
 -2        53       121       246       208        51       125       252       212       120       244
 -2       245       209        52       123       249       210       124       250       251       213
 -1        22    4    0    1
 -2       121        42       150       246       125        44       154       252       122       149
 -2       247       244       123        43       152       249       126       153       253       250
 -1        23    4    0    1
 -2       208       246       179        87       212       252       183        89       245       248
 -2       180       207       210       249       181        88       251       254       184       211
 -1        24    4    0    1
 -2       246       150        72       179       252       154        74       183       247       151
 -2       178       248       249       152        73       181       253       155       182       254
 -1        25    4    0    1
 -2        51       125       252       212        49       129       258       216       124       250
 -2       251       213        50       127       255       214       128       256       257       217
 -1        26    4    0    1
 -2       125        44       154       252       129        46       158       258       126       153
 -2       253       250       127        45       156       255       130       157       259       256
 -1        27    4    0    1
 -2       212       252       183        89       216       258       187        91       251       254
 -2       184       211       214       255       185        90       257       260       188       215
 -1        28    4    0    1
 -2       252       154        74       183       258       158        76       187       253       155
 -2       182       254       255       156        75       185       259       159       186       260
 -1        29    4    0    1
 -2        49       129       258       216         5        22       100        31       128       256
 -2       257       217        48       131       261       218        21        98        99        32
 -1        30    4    0    1
 -2       129        46       158       258        22         6        25       100       130       157
 -2       259       256       131        47       160       261        23        24       101        98
 -1        31    4    0    1
 -2       216       258       187        91        31       100        28         8       257       260
 -2       188       215       218       261       189        92        99       102        29        30
 -1        32    4    0    1
 -2       258       158        76       187       100        25         7        28       259       159
 -2       186       260       261       160        77       189       101        26        27       102
 -3
    1PSTEP                         1           1           1          
  100CL  101 1.000000000         261                     0    1           1
 -4  DISP        4    1
 -5  D1          1    2    1    0
 -5  D2          1    2    2    0
 -5  D3          1    2    3    0
 -5  ALL         1    2    0    0    1ALL
 -1         1-1.55647E-04 1.07472E-03 3.04633E-02
 -1         2-1.64580E-04 1.07472E-03 3.04633E-02
 -1         3 0.00000E+00 0.00000E+00 0.00000E+00
 -1         4-3.20227E-04 0.00000E+00 0.00000E+00
 -1         5-1.55647E-04 1.07472E-03-1.53782E-03
 -1         6-1.64580E-04 1.07472E-03-1.53782E-03
 -1         7 0.00000E+00 0.00000E+00 2.89255E-02
 -1         8-3.20227E-04 0.00000E+00 2.89255E-02
 -1         9-1.59749E-04 1.12769E-03 3.04516E-02
 -1        10-1.60114E-04 1.14374E-03 3.04446E-02
 -1        11-1.60479E-04 1.12769E-03 3.04516E-02
 -1        12-1.48578E-04 1.00754E-03 2.28896E-02
 -1        13-1.57108E-04 9.30180E-04 1.53479E-02
 -1        14-1.54245E-04 5.37275E-04 7.74678E-03
 -1        15-1.10525E-04 5.24546E-04 1.38511E-04
 -1        16-1.60114E-04 7.56231E-04 2.66725E-04
 -1        17-2.09702E-04 5.24546E-04 1.38511E-04
 -1        18-1.65983E-04 5.37275E-04 7.74678E-03
 -1        19-1.63120E-04 9.30180E-04 1.53479E-02
 -1        20-1.71649E-04 1.00754E-03 2.28896E-02
 -1        21-1.59749E-04 1.12769E-03-1.52616E-03
 -1        22-1.60114E-04 1.14374E-03-1.51918E-03
 -1        23-1.60479E-04 1.12769E-03-1.52616E-03
 -1        24-1.48578E-04 1.00754E-03 6.03587E-03
 -1        25-1.57108E-04 9.30180E-04 1.35776E-02
 -1        26-1.54245E-04 5.37275E-04 2.11787E-02
 -1        27-1.10525E-04 5.24546E-04 2.87870E-02
 -1        28-1.60114E-04 7.56231E-04 2.86587E-02
 -1        29-2.09702E-04 5.24546E-04 2.87870E-02
 -1        30-1.65983E-04 5.37275E-04 2.11787E-02
 -1        31-1.63120E-04 9.30180E-04 1.35776E-02
 -1        32-1.71649E-04 1.00754E-03 6.03587E-03
 -1        33-1.57931E-04 1.62625E-02 3.02127E-02
 -1        34-1.21973E-04 3.13465E-02 2.99202E-02
 -1        35-1.16750E-04 4.64344E-02 2.95868E-02
 -1        36-3.96375E-05 6.12762E-02 2.92098E-02
 -1        37 9.68786E-05 7.59536E-02 2.85029E-02
 -1        38 8.05970E-04 8.94846E-02 2.67308E-02
 -1        39 3.56664E-03 1.02319E-01 2.25043E-02
 -1        40 5.22614E-03 1.06547E-01 1.44627E-02
 -1        41 3.56664E-03 1.02319E-01 6.42120E-03
 -1        42 8.05970E-04 8.94846E-02 2.19463E-03
 -1        43 9.68786E-05 7.59536E-02 4.22538E-04
 -1        44-3.96375E-05 6.12762E-02-2.84322E-04
 -1        45-1.16750E-04 4.64344E-02-6.61331E-04
 -1        46-1.21973E-04 3.13465E-02-9.94775E-04
 -1        47-1.57931E-04 1.62625E-02-1.28722E-03
 -1        48-1.62296E-04 1.62625E-02-1.28722E-03
 -1        49-1.98255E-04 3.13465E-02-9.94775E-04
 -1        50-2.03477E-04 4.64344E-02-6.61331E-04
 -1        51-2.80590E-04 6.12762E-02-2.84322E-04
 -1        52-4.17106E-04 7.59536E-02 4.22538E-04
 -1        53-1.12620E-03 8.94846E-02 2.19463E-03
 -1        54-3.88687E-03 1.02319E-01 6.42120E-03
 -1        55-5.54637E-03 1.06547E-01 1.44627E-02
 -1        56-3.88687E-03 1.02319E-01 2.25043E-02
 -1        57-1.12620E-03 8.94846E-02 2.67308E-02
 -1        58-4.17106E-04 7.59536E-02 2.85029E-02
 -1        59-2.80590E-04 6.12762E-02 2.92098E-02
 -1        60-2.03477E-04 4.64344E-02 2.95868E-02
 -1        61-1.98255E-04 3.13465E-02 2.99202E-02
 -1        62-1.62296E-04 1.62625E-02 3.02127E-02
 -1        63-1.04137E-04 1.58004E-02-5.41472E-06
 -1        64-2.48242E-04 3.08544E-02-1.50264E-04
 -1        65-1.98705E-04 4.60015E-02-2.80050E-04
 -1        66-2.56225E-04 6.08079E-02-3.56773E-04
 -1        67-4.57569E-04 7.56107E-02-7.86895E-05
 -1        68-1.12353E-03 8.95312E-02 1.17630E-03
 -1        69-3.43115E-03 1.01093E-01 5.39486E-03
 -1        70-5.89325E-03 1.05942E-01 1.44627E-02
 -1        71-3.43115E-03 1.01093E-01 2.35306E-02
 -1        72-1.12353E-03 8.95312E-02 2.77492E-02
 -1        73-4.57569E-04 7.56107E-02 2.90042E-02
 -1        74-2.56225E-04 6.08079E-02 2.92822E-02
 -1        75-1.98705E-04 4.60015E-02 2.92055E-02
 -1        76-2.48242E-04 3.08544E-02 2.90757E-02
 -1        77-1.04137E-04 1.58004E-02 2.89309E-02
 -1        78-2.16091E-04 1.58004E-02-5.41472E-06
 -1        79-7.19855E-05 3.08544E-02-1.50264E-04
 -1        80-1.21523E-04 4.60015E-02-2.80050E-04
 -1        81-6.40024E-05 6.08079E-02-3.56773E-04
 -1        82 1.37341E-04 7.56107E-02-7.86895E-05
 -1        83 8.03304E-04 8.95312E-02 1.17630E-03
 -1        84 3.11092E-03 1.01093E-01 5.39486E-03
 -1        85 5.57302E-03 1.05942E-01 1.44627E-02
 -1        86 3.11092E-03 1.01093E-01 2.35306E-02
 -1        87 8.03304E-04 8.95312E-02 2.77492E-02
 -1        88 1.37341E-04 7.56107E-02 2.90042E-02
 -1        89-6.40024E-05 6.08079E-02 2.92822E-02
 -1        90-1.21523E-04 4.60015E-02 2.92055E-02
 -1        91-7.19855E-05 3.08544E-02 2.90757E-02
 -1        92-2.16091E-04 1.58004E-02 2.89309E-02
 -1        93-1.60114E-04 1.01431E-03 2.28933E-02
 -1        94-1.58166E-04 8.79756E-04 1.53397E-02
 -1        95-1.60114E-04 8.87400E-04 1.53342E-02
 -1        96-1.62061E-04 8.79756E-04 1.53397E-02
 -1        97-1.60114E-04 8.03939E-04 7.78202E-03
 -1        98-1.60114E-04 1.01431E-03 6.03220E-03
 -1        99-1.58166E-04 8.79756E-04 1.35857E-02
 -1       100-1.60114E-04 8.87400E-04 1.35913E-02
 -1       101-1.62061E-04 8.79756E-04 1.35857E-02
 -1       102-1.60114E-04 8.03939E-04 2.11435E-02
 -1       103-1.60114E-04 1.62383E-02 3.02062E-02
 -1       104-1.75767E-04 3.13658E-02 2.99283E-02
 -1       105-1.60114E-04 3.13898E-02 2.99250E-02
 -1       106-1.44461E-04 3.13658E-02 2.99283E-02
 -1       107-1.60114E-04 4.63775E-02 2.96135E-02
 -1       108-2.29724E-04 6.12963E-02 2.92253E-02
 -1       109-1.60114E-04 6.13731E-02 2.92550E-02
 -1       110-9.05035E-05 6.12963E-02 2.92253E-02
 -1       111-1.60114E-04 7.57253E-02 2.85307E-02
 -1       112-5.70549E-04 8.97267E-02 2.72401E-02
 -1       113-1.60114E-04 8.97831E-02 2.73670E-02
 -1       114 2.50321E-04 8.97267E-02 2.72401E-02
 -1       115-1.60114E-04 1.00024E-01 2.24824E-02
 -1       116-3.27062E-03 1.05046E-01 1.44627E-02
 -1       117-1.60114E-04 1.09119E-01 1.44627E-02
 -1       118 2.95039E-03 1.05046E-01 1.44627E-02
 -1       119-1.60114E-04 1.00024E-01 6.44305E-03
 -1       120-5.70549E-04 8.97267E-02 1.68534E-03
 -1       121-1.60114E-04 8.97831E-02 1.55850E-03
 -1       122 2.50321E-04 8.97267E-02 1.68534E-03
 -1       123-1.60114E-04 7.57253E-02 3.94754E-04
 -1       124-2.29724E-04 6.12963E-02-2.99808E-04
 -1       125-1.60114E-04 6.13731E-02-3.29551E-04
 -1       126-9.05035E-05 6.12963E-02-2.99808E-04
 -1       127-1.60114E-04 4.63775E-02-6.88074E-04
 -1       128-1.75767E-04 3.13658E-02-1.00285E-03
 -1       129-1.60114E-04 3.13898E-02-9.99498E-04
 -1       130-1.44461E-04 3.13658E-02-1.00285E-03
 -1       131-1.60114E-04 1.62383E-02-1.28074E-03
 -1       132-1.62580E-04 1.60179E-02 1.51117E-02
 -1       133-1.41372E-04 3.12769E-02 2.23909E-02
 -1       134-1.57953E-04 3.12023E-02 1.48694E-02
 -1       135-1.84075E-04 3.10209E-02 7.34726E-03
 -1       136-1.61641E-04 4.61890E-02 1.46555E-02
 -1       137-9.34868E-05 6.12231E-02 2.18089E-02
 -1       138-1.41118E-04 6.11562E-02 1.44231E-02
 -1       139-2.03272E-04 6.09880E-02 7.05124E-03
 -1       140-1.74514E-04 7.59275E-02 1.42296E-02
 -1       141 3.69608E-04 8.99405E-02 2.03412E-02
 -1       142-5.64640E-05 9.02142E-02 1.38849E-02
 -1       143-5.77296E-04 8.99848E-02 7.44256E-03
 -1       144-2.07893E-04 1.02695E-01 1.38584E-02
 -1       145 1.88405E-03 1.08302E-01 1.44627E-02
 -1       146-4.33620E-04 1.08384E-01 1.44627E-02
 -1       147-2.99808E-03 1.07760E-01 1.44627E-02
 -1       148-2.07893E-04 1.02695E-01 1.50670E-02
 -1       149 3.69608E-04 8.99405E-02 8.58423E-03
 -1       150-5.64640E-05 9.02142E-02 1.50406E-02
 -1       151-5.77296E-04 8.99848E-02 2.14829E-02
 -1       152-1.74514E-04 7.59275E-02 1.46958E-02
 -1       153-9.34868E-05 6.12231E-02 7.11657E-03
 -1       154-1.41118E-04 6.11562E-02 1.45024E-02
 -1       155-2.03272E-04 6.09880E-02 2.18742E-02
 -1       156-1.61641E-04 4.61890E-02 1.42700E-02
 -1       157-1.41372E-04 3.12769E-02 6.53457E-03
 -1       158-1.57953E-04 3.12023E-02 1.40561E-02
 -1       159-1.84075E-04 3.10209E-02 2.15782E-02
 -1       160-1.62580E-04 1.60179E-02 1.38138E-02
 -1       161-1.60114E-04 1.57495E-02-5.77116E-06