    1C
    1UUSER                                                              
    1UDATE              29.july.2023                                    
    1UTIME              11:08:34                                        
    1UHOST                                                              
    1UPGM               CalculiX                                        
    1UVERSION           Version 2.21                             
    1UCOMPILETIME       Fri Jul 28 17:39:16 CEST 2023                    
    1UDIR                                                               
    1UDBN                                                               
    1UMAT    1HY                                                        
    2C                            21                                     1
 -1         1 0.00000E+00 1.00000E+00 0.00000E+00
 -1         2 1.00000E+00 1.00000E+00 0.00000E+00
 -1         3 1.00000E+00 5.00000E-01 0.00000E+00
 -1         4 0.00000E+00 5.00000E-01 0.00000E+00
 -1         5 5.00000E-01 1.00000E+00 0.00000E+00
 -1         6 1.00000E+00 7.50000E-01 0.00000E+00
 -1         7 5.00000E-01 5.00000E-01 0.00000E+00
 -1         8 0.00000E+00 7.50000E-01 0.00000E+00
 -1         9 1.00000E+00 0.00000E+00 0.00000E+00
 -1        10 0.00000E+00 0.00000E+00 0.00000E+00
 -1        11 1.00000E+00 2.50000E-01 0.00000E+00
 -1        12 5.00000E-01 0.00000E+00 0.00000E+00
 -1        13 0.00000E+00 2.50000E-01 0.00000E+00
 -1        14 2.00000E+00 1.00000E+00 0.00000E+00
 -1        15 2.00000E+00 5.00000E-01 0.00000E+00
 -1        16 1.50000E+00 1.00000E+00 0.00000E+00
 -1        17 2.00000E+00 7.50000E-01 0.00000E+00
 -1        18 1.50000E+00 5.00000E-01 0.00000E+00
 -1        19 2.00000E+00 0.00000E+00 0.00000E+00
 -1        20 2.00000E+00 2.50000E-01 0.00000E+00
 -1        21 1.50000E+00 0.00000E+00 0.00000E+00
 -3
    3C                             4                                     1
 -1         1   10    0    1
 -2         1         4         3         2         8         7         6         5
 -1         2   10    0    1
 -2         4        10         9         3        13        12        11         7
 -1         3   10    0    1
 -2         2         3        15        14         6        18        17        16
 -1         4   10    0    1
 -2         3         9        19        15        11        21        20        18
 -3
    1PSTEP                         1           4           1          
  100CL  101 1.000000000          21                     0    1           1
 -4  DISP        4    1
 -5  D1          1    2    1    0
 -5  D2          1    2    2    0
 -5  D3          1    2    3    0
 -5  ALL         1    2    0    0    1ALL
 -1         1 0.00000E+00-1.68665E-02 5.42101E-19
 -1         2 2.93119E-02-6.15298E-02-1.03169E-18
 -1         3 1.73759E-04-5.90900E-02 4.78785E-19
 -1         4 0.00000E+00 0.00000E+00 6.64074E-19
 -1         5 2.62902E-02-3.19741E-02 1.04626E-17
 -1         6 1.46893E-02-6.04457E-02 1.13841E-18
 -1         7 1.03094E-03-2.82875E-02-3.28141E-18
 -1         8 0.00000E+00-6.55603E-03 5.31259E-18
 -1         9-2.92519E-02-5.94099E-02-1.54414E-18
 -1        10 0.00000E+00-1.32650E-02-1.08420E-19
 -1        11-1.43929E-02-5.94149E-02-8.67362E-19
 -1        12-2.48421E-02-2.91315E-02-3.25261E-18
 -1        13 0.00000E+00-4.69573E-03 1.40946E-18
 -1        14 2.86616E-02-1.22667E-01 8.87691E-19
 -1        15-1.55710E-03-1.20327E-01 2.47757E-18
 -1        16 2.92887E-02-9.12739E-02 1.10961E-17
 -1        17 1.33284E-02-1.21357E-01-1.24412E-17
 -1        18-7.57208E-04-9.05424E-02-3.03407E-18
 -1        19-3.18668E-02-1.20373E-01-1.43996E-18
 -1        20-1.65430E-02-1.20230E-01 1.10792E-18
 -1        21-3.07419E-02-8.91214E-02-1.26424E-17
 -3
    1PSTEP                         2           4           1          
  100CL  101 1.000000000          21                     0    1           1
 -4  STRESS      6    1
 -5  SXX         1    4    1    1
 -5  SYY         1    4    2    2
 -5  SZZ         1    4    3    3
 -5  SXY         1    4    1    2
 -5  SYZ         1    4    2    3
 -5  SZX         1    4    3    1
 -1         1 1.59744E+03 1.42763E+02 1.81378E+02 1.07494E+02-3.04823E-12 7.35412E-13
 -1         2 4.25243E+02-1.70545E+02-8.21887E+00-7.10731E+01 3.92220E-12-2.40696E-12
 -1         3-8.99363E+01-6.14037E+01-2.10628E+00-2.71384E+02 1.10822E-11 4.93772E-14
 -1         4 1.29621E+02-1.59941E+01 6.35194E+00-7.41899E+02-2.69829E-12-3.93463E-13
 -1         5 9.18422E+02-2.54783E+02-4.79815E+01-6.75735E+01 3.69482E-12-6.64357E-13
 -1         6 1.54923E+02-5.26161E+01 3.54880E-01-1.76002E+02 1.16946E-11-1.12266E-12
 -1         7 9.88539E+00-6.66404E+01 1.11739E+00-4.19678E+02 3.97016E-12 3.53495E-13
 -1         8 8.95769E+02-3.67777E+02-6.84025E+01-2.85573E+02-2.74269E-12 1.82965E-13
 -1         9-3.44353E+02 2.49637E+01 1.33221E+01-3.33736E+00 1.03206E-12-5.73763E-13
 -1        10-1.81002E+03-3.28259E+02-1.97284E+02 1.63771E+02 2.14584E-12 1.35003E-13
 -1        11-2.04414E+02-8.15783E+01 9.04577E-02-1.32587E+02 1.86429E-12-3.19744E-13
 -1        12-9.77282E+02 1.07320E+02 4.50880E+01-1.04060E+01 1.98952E-13-1.91847E-13
 -1        13-8.72436E+02 2.59035E+02 6.68018E+01-3.20693E+02-4.12115E-13-1.42109E-13
 -1        14-1.79219E+02-3.95168E+02-1.29010E+02-1.15645E+02 1.98561E-11 1.68987E-12
 -1        15 1.42384E+01-9.25351E+01-1.26210E-01 1.08007E+02-1.69287E-11 4.66960E-13
 -1        16 2.15932E+02-4.19646E+01 6.59466E+01-7.57481E+00 8.63132E-12-5.28022E-13
 -1        17 6.42404E+00-9.08937E+01 6.43422E+01-7.05393E+00-1.09139E-11 1.13887E-12
 -1        18-2.78919E+01-4.90279E+01-1.10802E-01-1.68653E+02-2.70006E-12-2.66898E-13
 -1        19 1.48986E+02 2.75103E+02 1.29129E+02-1.18799E+02-2.77716E-11 7.27352E-12
 -1        20-7.30222E+00-6.16739E+01-6.44092E+01-2.16073E+00-9.97247E-12 3.80962E-12
 -1        21-1.97587E+02-1.08934E+02-6.58432E+01 2.95545E+01-1.19744E-11 3.31868E-12
 -3
    1PSTEP                         3           4           1          
  100CL  101 1.000000000          21                     0    1           1
 -4  PE          1    1
 -5  PE          1    1    0    0
 -1         1 6.46419E-02
 -1         2-8.46484E-03
 -1         3-1.05999E-03
 -1         4 7.69107E-03
 -1         5 2.38562E-02
 -1         6-4.97846E-03
 -1         7 2.78512E-03
 -1         8 3.76939E-02
 -1         9-8.13206E-03
 -1        10 6.08875E-02
 -1        11-4.37997E-03
 -1        12 2.23118E-02
 -1        13 3.27619E-02
 -1        14 6.13278E-08
 -1        15-2.28310E-07
 -1        16-8.37878E-08
 -1        17-8.37878E-08
 -1        18 3.11871E-07
 -1        19 6.10097E-08
 -1        20-8.33532E-08
 -1        21-8.33532E-08
 -3
    1PSTEP                         4           4           1          
  100CL  101 1.000000000          21                     0    1           1
 -4  ERROR       1    1
 -5  STR(%)      1    1    0    0
 -1         1 2.90831E+01
 -1         2 5.59918E+01
 -1         3 6.15461E+01
 -1         4 3.09220E+01
 -1         5 4.25374E+01
 -1         6 5.87690E+01
 -1         7 4.62341E+01
 -1         8 3.00025E+01
 -1         9 6.15461E+01
 -1        10 3.09220E+01
 -1        11 6.15461E+01
 -1        12 4.62341E+01
 -1        13 3.09220E+01
 -1        14 5.59918E+01
 -1        15 6.15461E+01
 -1        16 5.59918E+01
 -1        17 5.87690E+01
 -1        18 6.15461E+01
 -1        19 6.15461E+01
 -1        20 6.15461E+01
 -1        21 6.15461E+01
 -3
    1PSTEP                         1           1           2          
  100CL  102 0.00000E+00          21                     3    2           1
 -4  NORM        4    1
 -5  NORMX       1    2    1    0
 -5  NORMY       1    2    2    0
 -5  NORMZ       1    2    3    0
 -5  ALL         1    2    0    0    1ALL
 -1         1 0.00000E+00 1.00000E+00 0.00000E+00
 -1         2 0.00000E+00 1.00000E+00 0.00000E+00
 -1         3 0.00000E+00 0.00000E+00 0.00000E+00
 -1         4 0.00000E+00 0.00000E+00 0.00000E+00
 -1         5 0.00000E+00 1.00000E+00 0.00000E+00
 -1         6 0.00000E+00 0.00000E+00 0.00000E+00
 -1         7 0.00000E+00 0.00000E+00 0.00000E+00
 -1         8 0.00000E+00 0.00000E+00 0.00000E+00
 -1         9 0.00000E+00-1.00000E+00 0.00000E+00
 -1        10 0.00000E+00-1.00000E+00 0.00000E+00
 -1        11 0.00000E+00 0.00000E+00 0.00000E+00
 -1        12 0.00000E+00-1.00000E+00 0.00000E+00
 -1        13 0.00000E+00 0.00000E+00 0.00000E+00
 -1        14 7.07107E-01 7.07107E-01 0.00000E+00
 -1        15 1.00000E+00 0.00000E+00 0.00000E+00
 -1        16 0.00000E+00 1.00000E+00 0.00000E+00
 -1        17 1.00000E+00 0.00000E+00 0.00000E+00
 -1        18 0.00000E+00 0.00000E+00 0.00000E+00
 -1        19 7.07107E-01-7.07107E-01 0.00000E+00
 -1        20 1.00000E+00 0.00000E+00 0.00000E+00
 -1        21 0.00000E+00-1.00000E+00 0.00000E+00
 -3
    1PSTEP                         2           1           2          
  100CL  103 0.00000E+00          21                     3    3           1
 -4  SENSPEQ     2    1
 -5  DFDN        1    1    1    0
 -5  DFDNFIL     1    1    2    0
 -1         1 0.00000E+00 0.00000E+00
 -1         2 0.00000E+00 0.00000E+00
 -1         3 0.00000E+00 0.00000E+00
 -1         4 0.00000E+00 0.00000E+00
 -1         5 0.00000E+00 0.00000E+00
 -1         6 0.00000E+00 0.00000E+00
 -1         7 0.00000E+00 0.00000E+00
 -1         8 0.00000E+00 0.00000E+00
 -1         9-1.40440E+02-3.32505E-01
 -1        10-2.81665E+02-6.66871E-01
 -1        11 0.00000E+00 0.00000E+00
 -1        12-2.81665E+02-6.66871E-01
 -1        13 0.00000E+00 0.00000E+00
 -1        14 0.00000E+00 0.00000E+00
 -1        15 0.00000E+00 0.00000E+00
 -1        16 0.00000E+00 0.00000E+00
 -1        17 0.00000E+00 0.00000E+00
 -1        18 0.00000E+00 0.00000E+00
 -1        19 7.86006E-01 1.86095E-03
 -1        20 0.00000E+00 0.00000E+00
 -1        21 7.86006E-01 1.86095E-03
 -3
    1PSTEP                         3           1           2          
  100CL  104 0.00000E+00          21                     3    4           1
 -4  SENMISE     2    1
 -5  DFDN        1    1    1    0
 -5  DFDNFIL     1    1    2    0
 -1         1 0.00000E+00 0.00000E+00
 -1         2 0.00000E+00 0.00000E+00
 -1         3 0.00000E+00 0.00000E+00
 -1         4 0.00000E+00 0.00000E+00
 -1         5 0.00000E+00 0.00000E+00
 -1         6 0.00000E+00 0.00000E+00
 -1         7 0.00000E+00 0.00000E+00
 -1         8 0.00000E+00 0.00000E+00
 -1         9-2.13712E+03-3.32450E-01
 -1        10-4.28701E+03-6.66884E-01
 -1        11 0.00000E+00 0.00000E+00
 -1        12-4.28701E+03-6.66884E-01
 -1        13 0.00000E+00 0.00000E+00
 -1        14 0.00000E+00 0.00000E+00
 -1        15 0.00000E+00 0.00000E+00
 -1        16 0.00000E+00 0.00000E+00
 -1        17 0.00000E+00 0.00000E+00
 -1        18 0.00000E+00 0.00000E+00
 -1        19 1.27585E+01 1.98470E-03
 -1        20 0.00000E+00 0.00000E+00
 -1        21 1.27585E+01 1.98470E-03
 -3
 9999
